Title: Constant values
Date: Sat Aug 16 10:55:15 PDT 1986
Plotname: constants
Flags: complex
No. Variables: 12
No. Points: 1
Variables:
	0	yes	notype
	1	false	notype
	2	true	notype
	3	boltz	notype
	4	c	notype
	5	e	notype
	6	echarge	notype
	7	i	notype
	8	kelvin	notype
	9	no	notype
	10	pi	notype
	11	planck	notype
Values:
 0	1.000000000000000e+00,0.0
	0.000000000000000e+00,0.0
	1.000000000000000e+00,0.0
	1.380620000000000e-23,0.0
	2.997925000000000e+08,0.0
	2.718281828445905e+00,0.0
	1.602190000000000e-19,0.0
	0.000000000000000e+00,1.000000000000000e+00
	-2.731500000000000e+02,0.0
	0.000000000000000e+00,0.0
	3.141592653589793e+00,0.0
	6.626199999999999e-34,0.0

